# vtk DataFile Version 3.0
Vector field to define the tangents
ASCII

DATASET UNSTRUCTURED_GRID
POINTS 2 float
0.439965579737 -0.386267059529 0.0702044006837
0.439965579737 -0.386267059529 0.0702044006837

POINT_DATA 2
VECTORS unstabledirs float 
0.991395986011 -0.127311871784 -0.030425092001
0.0 -0.99999559927 0.00296672229673
